
  ___ ___ ___ _ _ _  
 |   |   |_  | | | | 
 | | | | | . | | | | 
 |__ |  _|___|_____|  25.7.0
 |___|_|             

User:   giovanniarangio@192.168.1.29
Date:   Tue Sep  2 14:19:43 2025
Arch:   arm64
Pid:    5188
CWD:    .
Python: 3.13.5
gpaw:   ./.venv/lib/python3.13/site-packages/gpaw
_gpaw:  ./.venv/lib/python3.13/site-packages/
        _gpaw.cpython-313-darwin.so
ase:    ./.venv/lib/python3.13/site-packages/ase (version 3.26.0)
numpy:  ./.venv/lib/python3.13/site-packages/numpy (version 2.3.2)
scipy:  ./.venv/lib/python3.13/site-packages/scipy (version 1.16.1)
libxc:  2.x.y
units:  Angstrom and eV
cores: 1
OpenMP: False
OMP_NUM_THREADS: 1
DEBUG-MODE: true

Input parameters:
  convergence: {density: 0.001,
                eigenstates: 1e-06,
                energy: 0.0001}
  kpts: [4 4 4]
  maxiter: 100
  mixer: {beta: 0.1,
          method: Pulay,
          nmaxold: 5,
          weight: 50.0}
  mode: {ecut: 400.0,
         name: pw}
  xc: PBE

System changes: positions, numbers, cell, pbc, initial_charges, initial_magmoms 

Initialize ...

species:
  Cu:
    name: Copper
    id: f1c4d45d90492f1bbfdcb091e8418fdf
    Z: 29.0
    valence: 11
    core: 18
    charge: 0.0
    file: ./.venv/lib/python3.13/site-packages/gpaw_data/setups/Cu.PBE.gz
    compensation charges: {type: gauss,
                           rc: 0.33,
                           lmax: 2}
    cutoffs: {filter: 2.06,
              core: 2.43}
    projectors:
      #              energy  rcut
      - 4s(1.00)    -4.609   1.164
      - 4p(0.00)    -0.698   1.164
      - 3d(10.00)    -5.039   1.058
      -  s          22.603   1.164
      -  p          26.513   1.164
      -  d          22.172   1.058
  
    # Using partial waves for Cu as LCAO basis

Reference energy: -90042.903682  # eV

Spin-paired calculation

Convergence criteria:
 Maximum [total energy] change in last 3 cyles: 0.0001 eV / valence electron
 Maximum integral of absolute [dens]ity change: 0.001 electrons / valence electron
 Maximum integral of absolute [eigenst]ate change: 1e-06 eV^2 / valence electron
 Maximum number of scf [iter]ations: 100
 (Square brackets indicate name in SCF output, whereas a 'c' in
 the SCF output indicates the quantity has converged.)

Symmetries present (total): 16

  ( 1  0  0)  ( 1  0  0)  ( 1  0  0)  ( 1  0  0)  ( 0  1  0)  ( 0  1  0)
  ( 0  1  0)  ( 0  1  0)  ( 0 -1  0)  ( 0 -1  0)  ( 1  0  0)  ( 1  0  0)
  ( 0  0  1)  ( 0  0 -1)  ( 0  0  1)  ( 0  0 -1)  ( 0  0  1)  ( 0  0 -1)

  ( 0  1  0)  ( 0  1  0)  ( 0 -1  0)  ( 0 -1  0)  ( 0 -1  0)  ( 0 -1  0)
  (-1  0  0)  (-1  0  0)  ( 1  0  0)  ( 1  0  0)  (-1  0  0)  (-1  0  0)
  ( 0  0  1)  ( 0  0 -1)  ( 0  0  1)  ( 0  0 -1)  ( 0  0  1)  ( 0  0 -1)

  (-1  0  0)  (-1  0  0)  (-1  0  0)  (-1  0  0)
  ( 0  1  0)  ( 0  1  0)  ( 0 -1  0)  ( 0 -1  0)
  ( 0  0  1)  ( 0  0 -1)  ( 0  0  1)  ( 0  0 -1)

64 k-points: 4 x 4 x 4 Monkhorst-Pack grid
6 k-points in the irreducible part of the Brillouin zone
       k-points in crystal coordinates                weights
   0:     0.12500000    0.12500000    0.12500000          8/64
   1:     0.12500000    0.12500000    0.37500000          8/64
   2:     0.37500000    0.12500000    0.12500000         16/64
   3:     0.37500000    0.12500000    0.37500000         16/64
   4:     0.37500000    0.37500000    0.12500000          8/64
   5:     0.37500000    0.37500000    0.37500000          8/64

Wave functions: Plane wave expansion
  Cutoff energy: 400.000 eV
  Number of coefficients (min, max): 859, 874
  Pulay-stress correction: 0.000000 eV/Ang^3 (de/decut=0.000000)
  Using Numpy's FFT
  ScaLapack parameters: grid=1x1, blocksize=None
  Wavefunction extrapolation:
    Improved wavefunction reuse through dual PAW basis 

Occupation numbers: Fermi-Dirac:
  width: 0.1000  # eV
 

Eigensolver
   Davidson(niter=2) 

Densities:
  Coarse grid: 18*18*18 grid
  Fine grid: 36*36*36 grid
  Total Charge: 0.000000 

Density mixing:
  Method: separate
  Backend: pulay
  Linear mixing parameter: 0.1
  old densities: 5
  Damping of long wavelength oscillations: 50 

Hamiltonian:
  XC and Coulomb potentials evaluated on a 36*36*36 grid
  Using the PBE Exchange-Correlation functional
  External potential:
    NoExternalPotential
 

XC parameters: PBE with 2 nearest neighbor stencil

Memory estimate:
  Process memory now: 1053.48 MiB
  Calculator: 6.04 MiB
    Density: 2.52 MiB
      Arrays: 1.16 MiB
      Localized functions: 0.91 MiB
      Mixer: 0.44 MiB
    Hamiltonian: 0.78 MiB
      Arrays: 0.76 MiB
      XC: 0.00 MiB
      Poisson: 0.00 MiB
      vbar: 0.02 MiB
    Wavefunctions: 2.75 MiB
      Arrays psit_nG: 1.44 MiB
      Eigensolver: 0.36 MiB
      Projections: 0.06 MiB
      Projectors: 0.59 MiB
      PW-descriptor: 0.30 MiB

Total number of cores used: 1

Number of atoms: 2
Number of atomic orbitals: 18
Number of bands in calculation: 18
Number of valence electrons: 22
Bands to converge: occupied

... initialized

Initializing position-dependent things.

Density initialized from atomic densities
Creating initial wave functions:
  18 bands from LCAO basis set

   .--------.  
  /|        |  
 * |        |  
 | |        |  
 | .--------.  
 |/   Cu   /   
 Cu-------*    

Atomic positions and initial magnetic moments

Positions:
   0 Cu     0.000000    0.000000    0.000000    ( 0.0000,  0.0000,  0.0000)
   1 Cu     1.810000    1.810000    0.000000    ( 0.0000,  0.0000,  0.0000)

Unit cell:
           periodic     x           y           z      points  spacing
  1. axis:    yes    3.620000    0.000000    0.000000    18     0.2011
  2. axis:    yes    0.000000    3.620000    0.000000    18     0.2011
  3. axis:    yes    0.000000    0.000000    3.620000    18     0.2011

  Lengths:   3.620000   3.620000   3.620000
  Angles:   90.000000  90.000000  90.000000

Effective grid spacing dv^(1/3) = 0.2011

     iter     time        total  log10-change:
                         energy   eigst   dens
iter:   1 14:19:43    -5.867353
iter:   2 14:19:43    -5.114722   -1.78  -1.26
iter:   3 14:19:43    -4.985164   -2.02  -1.60
iter:   4 14:19:44    -5.032632   -2.26  -1.85
iter:   5 14:19:44    -4.975914   -2.60  -1.98
iter:   6 14:19:44    -4.987418   -2.76  -2.73
iter:   7 14:19:44    -4.975226   -3.00  -2.27
iter:   8 14:19:44    -4.975039   -5.66  -3.02c
iter:   9 14:19:44    -4.974871c  -4.55  -3.13c
iter:  10 14:19:44    -4.974839c  -6.64c -3.56c

Converged after 10 iterations.

Dipole moment: (-0.000000, 0.000000, 0.000000) |e|*Ang

Energy contributions relative to reference atoms: (reference = -90042.903682)

Kinetic:        -24.822429
Potential:      +18.428404
External:        +0.000000
XC:              +1.011646
Entropy (-ST):   -0.020155
Local:           +0.417618
SIC:             +0.000000
--------------------------
Free energy:     -4.984917
Extrapolated:    -4.974839

Showing only first 2 kpts
 Kpt  Band  Eigenvalues  Occupancy
  0     9      0.58002    1.99992
  0    10      0.77363    1.99944
  0    11      5.87372    0.00000
  0    12      6.08314    0.00000

  1     9      0.58093    1.99992
  1    10      0.80803    1.99921
  1    11      2.77727    0.00001
  1    12      6.92157    0.00000


Fermi level: 1.59149

Gap: 0.485 eV
Transition (v -> c):
  (s=0, k=5, n=10, [0.38, 0.38, 0.38]) -> (s=0, k=2, n=11, [0.38, 0.12, 0.12])
Direct/indirect transitions are different
Direct gap: 1.454 eV
Transition at: (s=0, k=2, n=10, [0.38, 0.12, 0.12])
Timing:                              incl.     excl.
-----------------------------------------------------------
Hamiltonian:                         0.021     0.000   0.0% |
 Atomic:                             0.018     0.000   0.0% |
  XC Correction:                     0.017     0.017   0.4% |
 Calculate atomic Hamiltonians:      0.000     0.000   0.0% |
 Communicate:                        0.000     0.000   0.0% |
 Initialize Hamiltonian:             0.000     0.000   0.0% |
 Poisson:                            0.000     0.000   0.0% |
 XC 3D grid:                         0.003     0.003   0.1% |
LCAO initialization:                 0.104     0.012   0.3% |
 LCAO eigensolver:                   0.039     0.000   0.0% |
  Calculate projections:             0.000     0.000   0.0% |
  DenseAtomicCorrection:             0.000     0.000   0.0% |
  Distribute overlap matrix:         0.000     0.000   0.0% |
  Orbital Layouts:                   0.000     0.000   0.0% |
  Potential matrix:                  0.038     0.038   0.9% |
  Sum over cells:                    0.000     0.000   0.0% |
 LCAO to grid:                       0.038     0.038   0.9% |
 Set positions (LCAO WFS):           0.015     0.003   0.1% |
  Basic WFS set positions:           0.000     0.000   0.0% |
  Basis functions set positions:     0.000     0.000   0.0% |
  P tci:                             0.004     0.004   0.1% |
  ST tci:                            0.006     0.006   0.1% |
  mktci:                             0.002     0.002   0.0% |
PWDescriptor:                        0.001     0.001   0.0% |
SCF-cycle:                           1.041     0.004   0.1% |
 Davidson:                           0.763     0.050   1.2% |
  Apply H:                           0.153     0.151   3.5% ||
   HMM T:                            0.002     0.002   0.0% |
  Subspace diag:                     0.172     0.001   0.0% |
   calc_h_matrix:                    0.162     0.007   0.2% |
    Apply H:                         0.155     0.153   3.5% ||
     HMM T:                          0.002     0.002   0.0% |
   diagonalize:                      0.004     0.004   0.1% |
   rotate_psi:                       0.005     0.005   0.1% |
  calc. matrices:                    0.349     0.039   0.9% |
   Apply H:                          0.310     0.306   7.1% |--|
    HMM T:                           0.004     0.004   0.1% |
  diagonalize:                       0.027     0.027   0.6% |
  rotate_psi:                        0.012     0.012   0.3% |
 Density:                            0.086     0.000   0.0% |
  Atomic density matrices:           0.003     0.003   0.1% |
  Mix:                               0.008     0.008   0.2% |
  Multipole moments:                 0.000     0.000   0.0% |
  Pseudo density:                    0.074     0.072   1.7% ||
   Symmetrize density:               0.003     0.003   0.1% |
 Hamiltonian:                        0.186     0.001   0.0% |
  Atomic:                            0.157     0.001   0.0% |
   XC Correction:                    0.156     0.156   3.6% ||
  Calculate atomic Hamiltonians:     0.002     0.002   0.1% |
  Communicate:                       0.000     0.000   0.0% |
  Poisson:                           0.000     0.000   0.0% |
  XC 3D grid:                        0.025     0.025   0.6% |
 Orthonormalize:                     0.002     0.000   0.0% |
  calc_s_matrix:                     0.001     0.001   0.0% |
  inverse-cholesky:                  0.000     0.000   0.0% |
  projections:                       0.000     0.000   0.0% |
  rotate_psi_s:                      0.000     0.000   0.0% |
Set symmetry:                        0.001     0.001   0.0% |
Other:                               3.128     3.128  72.8% |----------------------------|
-----------------------------------------------------------
Total:                                         4.297 100.0%

Memory usage: 1.03 GiB
Date: Tue Sep  2 14:19:47 2025
